# Forces     
# CofR       : (2.500000e-01 0.000000e+00 0.000000e+00)
# Time       forces(pressure viscous porous) moment(pressure viscous porous)
1            	((8.577892e+02 2.561745e+04 -1.431922e-18) (2.844073e+00 2.474188e+00 -1.384126e-20) (0.000000e+00 0.000000e+00 0.000000e+00)) ((1.280873e+04 -4.288946e+02 7.220527e+03) (1.237094e+00 -1.422036e+00 5.805179e-01) (0.000000e+00 0.000000e+00 0.000000e+00))
2            	((4.974700e+02 1.806443e+04 -2.796826e-19) (2.349725e+00 -2.147165e-01 -1.202660e-20) (0.000000e+00 0.000000e+00 0.000000e+00)) ((9.032213e+03 -2.487350e+02 5.016592e+03) (-1.073583e-01 -1.174862e+00 -1.570782e-01) (0.000000e+00 0.000000e+00 0.000000e+00))
3            	((-2.031314e+02 -2.395434e+03 2.580873e-18) (2.545287e+00 -3.047753e+00 -7.428438e-21) (0.000000e+00 0.000000e+00 0.000000e+00)) ((-1.197717e+03 1.015657e+02 -9.197999e+02) (-1.523877e+00 -1.272643e+00 -9.536712e-01) (0.000000e+00 0.000000e+00 0.000000e+00))
4            	((-4.672925e+02 -1.211418e+04 3.799632e-18) (2.300151e+00 -2.762682e+00 -5.427849e-21) (0.000000e+00 0.000000e+00 0.000000e+00)) ((-6.057092e+03 2.336462e+02 -3.704758e+03) (-1.381341e+00 -1.150075e+00 -8.582214e-01) (0.000000e+00 0.000000e+00 0.000000e+00))
5            	((-3.257415e+02 -9.088278e+03 2.930185e-18) (1.887014e+00 -4.637309e-01 -1.704788e-20) (0.000000e+00 0.000000e+00 0.000000e+00)) ((-4.544139e+03 1.628708e+02 -2.776134e+03) (-2.318654e-01 -9.435070e-01 -2.074270e-01) (0.000000e+00 0.000000e+00 0.000000e+00))
6            	((3.469354e+01 1.299189e+03 3.675342e-19) (1.953027e+00 1.082299e+00 -3.549433e-20) (0.000000e+00 0.000000e+00 0.000000e+00)) ((6.495947e+02 -1.734677e+01 3.865901e+02) (5.411494e-01 -9.765136e-01 2.330653e-01) (0.000000e+00 0.000000e+00 0.000000e+00))
7            	((2.123180e+02 7.480032e+03 -8.734749e-19) (1.892133e+00 1.266532e+00 -4.113611e-20) (0.000000e+00 0.000000e+00 0.000000e+00)) ((3.740016e+03 -1.061590e+02 2.237221e+03) (6.332662e-01 -9.460666e-01 2.853557e-01) (0.000000e+00 0.000000e+00 0.000000e+00))
8            	((1.222533e+02 5.970840e+03 8.481313e-20) (1.653248e+00 3.923211e-01 -2.897152e-20) (0.000000e+00 0.000000e+00 0.000000e+00)) ((2.985420e+03 -6.112666e+01 1.716973e+03) (1.961605e-01 -8.266239e-01 3.075663e-02) (0.000000e+00 0.000000e+00 0.000000e+00))
9            	((-9.292076e+01 5.847957e+02 2.171814e-18) (1.584292e+00 -3.628708e-01 -2.193846e-20) (0.000000e+00 0.000000e+00 0.000000e+00)) ((2.923978e+02 4.646038e+01 -2.307132e+01) (-1.814354e-01 -7.921461e-01 -1.941469e-01) (0.000000e+00 0.000000e+00 0.000000e+00))
10           	((-2.287581e+02 -3.057950e+03 3.366652e-18) (1.531067e+00 -4.980970e-01 -2.523897e-20) (0.000000e+00 0.000000e+00 0.000000e+00)) ((-1.528975e+03 1.143790e+02 -1.173940e+03) (-2.490485e-01 -7.655333e-01 -2.403147e-01) (0.000000e+00 0.000000e+00 0.000000e+00))
11           	((-2.057866e+02 -2.521781e+03 2.970428e-18) (1.450373e+00 -9.703177e-02 -2.749876e-20) (0.000000e+00 0.000000e+00 0.000000e+00)) ((-1.260891e+03 1.028933e+02 -9.658424e+02) (-4.851588e-02 -7.251865e-01 -1.225903e-01) (0.000000e+00 0.000000e+00 0.000000e+00))
12           	((-1.078680e+02 8.565091e+01 1.970769e-18) (1.419895e+00 3.161879e-01 -1.897958e-20) (0.000000e+00 0.000000e+00 0.000000e+00)) ((4.282546e+01 5.393402e+01 -7.730308e+01) (1.580940e-01 -7.099475e-01 2.286077e-03) (0.000000e+00 0.000000e+00 0.000000e+00))
13           	((-2.309167e+01 2.396785e+03 1.187489e-18) (1.377744e+00 4.284215e-01 -2.122248e-20) (0.000000e+00 0.000000e+00 0.000000e+00)) ((1.198393e+03 1.154584e+01 6.977836e+02) (2.142107e-01 -6.888718e-01 4.015714e-02) (0.000000e+00 0.000000e+00 0.000000e+00))
14           	((-2.861852e+01 2.441837e+03 1.410494e-18) (1.310244e+00 2.524536e-01 -1.841724e-20) (0.000000e+00 0.000000e+00 0.000000e+00)) ((1.220919e+03 1.430926e+01 6.889994e+02) (1.262268e-01 -6.551222e-01 -1.225526e-02) (0.000000e+00 0.000000e+00 0.000000e+00))
15           	((-8.887220e+01 1.172615e+03 2.160399e-18) (1.259952e+00 4.202752e-02 -1.853622e-20) (0.000000e+00 0.000000e+00 0.000000e+00)) ((5.863077e+02 4.443610e+01 2.220708e+02) (2.101376e-02 -6.299762e-01 -8.088247e-02) (0.000000e+00 0.000000e+00 0.000000e+00))
16           	((-1.511812e+02 -7.288750e+01 2.777593e-18) (1.219870e+00 -2.218224e-02 -1.503187e-20) (0.000000e+00 0.000000e+00 0.000000e+00)) ((-3.644375e+01 7.559062e+01 -2.327830e+02) (-1.109112e-02 -6.099348e-01 -1.072373e-01) (0.000000e+00 0.000000e+00 0.000000e+00))
17           	((-1.687512e+02 -2.204034e+02 2.887494e-18) (1.177583e+00 6.857228e-02 -1.061782e-20) (0.000000e+00 0.000000e+00 0.000000e+00)) ((-1.102017e+02 8.437562e+01 -2.840185e+02) (3.428614e-02 -5.887914e-01 -8.407976e-02) (0.000000e+00 0.000000e+00 0.000000e+00))
18           	((-1.550080e+02 3.196381e+02 2.627000e-18) (1.138617e+00 1.913875e-01 -1.352726e-20) (0.000000e+00 0.000000e+00 0.000000e+00)) ((1.598190e+02 7.750398e+01 -7.574916e+01) (9.569375e-02 -5.693085e-01 -4.666089e-02) (0.000000e+00 0.000000e+00 0.000000e+00))
19           	((-1.326124e+02 9.553650e+02 2.357012e-18) (1.098794e+00 2.420697e-01 -1.450385e-20) (0.000000e+00 0.000000e+00 0.000000e+00)) ((4.776825e+02 6.630619e+01 1.753965e+02) (1.210349e-01 -5.493969e-01 -2.882059e-02) (0.000000e+00 0.000000e+00 0.000000e+00))
20           	((-1.264523e+02 1.122331e+03 2.349736e-18) (1.054310e+00 2.080596e-01 -1.060550e-20) (0.000000e+00 0.000000e+00 0.000000e+00)) ((5.611656e+02 6.322615e+01 2.442803e+02) (1.040298e-01 -5.271551e-01 -3.846898e-02) (0.000000e+00 0.000000e+00 0.000000e+00))
21           	((-1.344015e+02 9.325890e+02 2.463742e-18) (1.012599e+00 1.513292e-01 -9.929993e-21) (0.000000e+00 0.000000e+00 0.000000e+00)) ((4.662945e+02 6.720077e+01 1.664626e+02) (7.566460e-02 -5.062996e-01 -5.828209e-02) (0.000000e+00 0.000000e+00 0.000000e+00))
22           	((-1.485769e+02 6.657337e+02 2.595102e-18) (9.780875e-01 1.292242e-01 -8.294882e-21) (0.000000e+00 0.000000e+00 0.000000e+00)) ((3.328668e+02 7.428843e+01 4.648097e+01) (6.461209e-02 -4.890437e-01 -6.920811e-02) (0.000000e+00 0.000000e+00 0.000000e+00))
23           	((-1.574458e+02 5.856797e+02 2.642083e-18) (9.477585e-01 1.525370e-01 -7.077640e-21) (0.000000e+00 0.000000e+00 0.000000e+00)) ((2.928399e+02 7.872288e+01 1.994069e+00) (7.626848e-02 -4.738792e-01 -6.545677e-02) (0.000000e+00 0.000000e+00 0.000000e+00))
24           	((-1.656892e+02 6.176888e+02 2.655321e-18) (9.173890e-01 1.903902e-01 -8.135391e-21) (0.000000e+00 0.000000e+00 0.000000e+00)) ((3.088444e+02 8.284459e+01 6.482938e+00) (9.519508e-02 -4.586945e-01 -5.491739e-02) (0.000000e+00 0.000000e+00 0.000000e+00))
25           	((-1.692957e+02 7.017377e+02 2.667122e-18) (8.836476e-01 2.112022e-01 -8.252096e-21) (0.000000e+00 0.000000e+00 0.000000e+00)) ((3.508689e+02 8.464787e+01 4.631543e+01) (1.056011e-01 -4.418238e-01 -4.756650e-02) (0.000000e+00 0.000000e+00 0.000000e+00))
26           	((-1.705261e+02 7.329408e+02 2.654139e-18) (8.484817e-01 2.083215e-01 -9.032979e-21) (0.000000e+00 0.000000e+00 0.000000e+00)) ((3.664704e+02 8.526307e+01 7.189555e+01) (1.041607e-01 -4.242409e-01 -4.757793e-02) (0.000000e+00 0.000000e+00 0.000000e+00))
27           	((-1.707560e+02 7.308548e+02 2.653980e-18) (8.154353e-01 1.953744e-01 -3.275637e-21) (0.000000e+00 0.000000e+00 0.000000e+00)) ((3.654274e+02 8.537799e+01 8.720357e+01) (9.768719e-02 -4.077177e-01 -5.208446e-02) (0.000000e+00 0.000000e+00 0.000000e+00))
28           	((-1.691653e+02 7.157938e+02 2.605386e-18) (7.837464e-01 1.884709e-01 -1.174685e-21) (0.000000e+00 0.000000e+00 0.000000e+00)) ((3.578969e+02 8.458264e+01 8.475623e+01) (9.423545e-02 -3.918732e-01 -5.554091e-02) (0.000000e+00 0.000000e+00 0.000000e+00))
29           	((-1.685708e+02 7.099076e+02 2.546212e-18) (7.551228e-01 1.934564e-01 -1.937746e-21) (0.000000e+00 0.000000e+00 0.000000e+00)) ((3.549538e+02 8.428542e+01 7.496770e+01) (9.672822e-02 -3.775614e-01 -5.515285e-02) (0.000000e+00 0.000000e+00 0.000000e+00))
30           	((-1.681001e+02 7.167339e+02 2.481526e-18) (7.284852e-01 2.039947e-01 -7.072134e-22) (0.000000e+00 0.000000e+00 0.000000e+00)) ((3.583670e+02 8.405006e+01 6.517677e+01) (1.019974e-01 -3.642426e-01 -5.216771e-02) (0.000000e+00 0.000000e+00 0.000000e+00))
31           	((-1.688179e+02 7.201605e+02 2.434950e-18) (7.026488e-01 2.117365e-01 -3.463933e-22) (0.000000e+00 0.000000e+00 0.000000e+00)) ((3.600802e+02 8.440896e+01 5.761530e+01) (1.058682e-01 -3.513244e-01 -4.900089e-02) (0.000000e+00 0.000000e+00 0.000000e+00))
32           	((-1.707734e+02 7.113684e+02 2.412693e-18) (6.773166e-01 2.128333e-01 -9.553019e-22) (0.000000e+00 0.000000e+00 0.000000e+00)) ((3.556842e+02 8.538668e+01 5.457447e+01) (1.064166e-01 -3.386583e-01 -4.744912e-02) (0.000000e+00 0.000000e+00 0.000000e+00))
33           	((-1.730029e+02 6.941209e+02 2.399431e-18) (6.524352e-01 2.097133e-01 -2.086484e-21) (0.000000e+00 0.000000e+00 0.000000e+00)) ((3.470604e+02 8.650144e+01 5.555556e+01) (1.048567e-01 -3.262176e-01 -4.741196e-02) (0.000000e+00 0.000000e+00 0.000000e+00))
34           	((-1.740319e+02 6.786395e+02 2.374205e-18) (6.276671e-01 2.067742e-01 -1.867029e-21) (0.000000e+00 0.000000e+00 0.000000e+00)) ((3.393198e+02 8.701597e+01 6.023271e+01) (1.033871e-01 -3.138336e-01 -4.757945e-02) (0.000000e+00 0.000000e+00 0.000000e+00))
35           	((-1.724356e+02 6.743945e+02 2.320940e-18) (6.038014e-01 2.068243e-01 -1.900881e-21) (0.000000e+00 0.000000e+00 0.000000e+00)) ((3.371972e+02 8.621781e+01 6.635186e+01) (1.034122e-01 -3.019007e-01 -4.694625e-02) (0.000000e+00 0.000000e+00 0.000000e+00))
36           	((-1.682115e+02 6.803629e+02 2.240329e-18) (5.806487e-01 2.088755e-01 -3.960366e-21) (0.000000e+00 0.000000e+00 0.000000e+00)) ((3.401814e+02 8.410574e+01 7.056243e+01) (1.044377e-01 -2.903244e-01 -4.537854e-02) (0.000000e+00 0.000000e+00 0.000000e+00))
37           	((-1.625858e+02 6.884651e+02 2.145253e-18) (5.594512e-01 2.104731e-01 -5.520860e-21) (0.000000e+00 0.000000e+00 0.000000e+00)) ((3.442325e+02 8.129289e+01 7.116581e+01) (1.052366e-01 -2.797256e-01 -4.354253e-02) (0.000000e+00 0.000000e+00 0.000000e+00))
38           	((-1.575871e+02 6.917929e+02 2.057842e-18) (5.399160e-01 2.098777e-01 -5.502075e-21) (0.000000e+00 0.000000e+00 0.000000e+00)) ((3.458964e+02 7.879354e+01 6.897752e+01) (1.049388e-01 -2.699580e-01 -4.196584e-02) (0.000000e+00 0.000000e+00 0.000000e+00))
39           	((-1.543163e+02 6.891405e+02 1.989334e-18) (5.218399e-01 2.074523e-01 -4.287155e-21) (0.000000e+00 0.000000e+00 0.000000e+00)) ((3.445702e+02 7.715814e+01 6.659411e+01) (1.037261e-01 -2.609199e-01 -4.071735e-02) (0.000000e+00 0.000000e+00 0.000000e+00))
40           	((-1.522023e+02 6.837611e+02 1.933131e-18) (5.053177e-01 2.046355e-01 -3.307555e-21) (0.000000e+00 0.000000e+00 0.000000e+00)) ((3.418806e+02 7.610115e+01 6.574812e+01) (1.023178e-01 -2.526588e-01 -3.956088e-02) (0.000000e+00 0.000000e+00 0.000000e+00))
41           	((-1.503002e+02 6.788452e+02 1.880476e-18) (4.898660e-01 2.025462e-01 -5.233706e-21) (0.000000e+00 0.000000e+00 0.000000e+00)) ((3.394226e+02 7.515008e+01 6.677070e+01) (1.012731e-01 -2.449330e-01 -3.820665e-02) (0.000000e+00 0.000000e+00 0.000000e+00))
42           	((-1.477005e+02 6.753398e+02 1.825078e-18) (4.751694e-01 2.011625e-01 -4.890980e-21) (0.000000e+00 0.000000e+00 0.000000e+00)) ((3.376699e+02 7.385023e+01 6.878692e+01) (1.005812e-01 -2.375847e-01 -3.660186e-02) (0.000000e+00 0.000000e+00 0.000000e+00))
43           	((-1.438029e+02 6.722996e+02 1.759570e-18) (4.614623e-01 1.998300e-01 -3.829586e-21) (0.000000e+00 0.000000e+00 0.000000e+00)) ((3.361498e+02 7.190143e+01 7.052646e+01) (9.991502e-02 -2.307312e-01 -3.492710e-02) (0.000000e+00 0.000000e+00 0.000000e+00))
44           	((-1.384591e+02 6.689628e+02 1.677627e-18) (4.488810e-01 1.979194e-01 -3.085117e-21) (0.000000e+00 0.000000e+00 0.000000e+00)) ((3.344814e+02 6.922956e+01 7.130743e+01) (9.895971e-02 -2.244405e-01 -3.333945e-02) (0.000000e+00 0.000000e+00 0.000000e+00))
45           	((-1.322819e+02 6.663528e+02 1.582494e-18) (4.378734e-01 1.953842e-01 -2.986990e-21) (0.000000e+00 0.000000e+00 0.000000e+00)) ((3.331764e+02 6.614094e+01 7.136721e+01) (9.769211e-02 -2.189367e-01 -3.186561e-02) (0.000000e+00 0.000000e+00 0.000000e+00))
46           	((-1.262562e+02 6.662978e+02 1.484239e-18) (4.283248e-01 1.926182e-01 -2.663966e-21) (0.000000e+00 0.000000e+00 0.000000e+00)) ((3.331489e+02 6.312809e+01 7.161245e+01) (9.630910e-02 -2.141624e-01 -3.038311e-02) (0.000000e+00 0.000000e+00 0.000000e+00))
47           	((-1.210171e+02 6.689284e+02 1.391621e-18) (4.200567e-01 1.900005e-01 -3.488524e-21) (0.000000e+00 0.000000e+00 0.000000e+00)) ((3.344642e+02 6.050857e+01 7.263871e+01) (9.500027e-02 -2.100284e-01 -2.880836e-02) (0.000000e+00 0.000000e+00 0.000000e+00))
48           	((-1.164468e+02 6.720982e+02 1.303093e-18) (4.129849e-01 1.875766e-01 -5.389507e-21) (0.000000e+00 0.000000e+00 0.000000e+00)) ((3.360491e+02 5.822338e+01 7.426882e+01) (9.378831e-02 -2.064925e-01 -2.717109e-02) (0.000000e+00 0.000000e+00 0.000000e+00))
49           	((-1.122394e+02 6.739515e+02 1.222238e-18) (4.069485e-01 1.850817e-01 -4.648311e-21) (0.000000e+00 0.000000e+00 0.000000e+00)) ((3.369757e+02 5.611970e+01 7.601019e+01) (9.254085e-02 -2.034742e-01 -2.561191e-02) (0.000000e+00 0.000000e+00 0.000000e+00))
50           	((-1.078794e+02 6.725829e+02 1.140443e-18) (4.011747e-01 1.824148e-01 -4.030926e-21) (0.000000e+00 0.000000e+00 0.000000e+00)) ((3.362914e+02 5.393971e+01 7.713688e+01) (9.120738e-02 -2.005873e-01 -2.411740e-02) (0.000000e+00 0.000000e+00 0.000000e+00))
51           	((-1.029361e+02 6.683070e+02 1.049318e-18) (3.961009e-01 1.795719e-01 -3.680914e-21) (0.000000e+00 0.000000e+00 0.000000e+00)) ((3.341535e+02 5.146805e+01 7.768396e+01) (8.978595e-02 -1.980504e-01 -2.269893e-02) (0.000000e+00 0.000000e+00 0.000000e+00))
52           	((-9.743954e+01 6.632642e+02 9.539177e-19) (3.918732e-01 1.766702e-01 -3.315249e-21) (0.000000e+00 0.000000e+00 0.000000e+00)) ((3.316321e+02 4.871977e+01 7.823424e+01) (8.833509e-02 -1.959366e-01 -2.132891e-02) (0.000000e+00 0.000000e+00 0.000000e+00))
53           	((-9.151803e+01 6.598457e+02 8.564658e-19) (3.883029e-01 1.739278e-01 -4.759727e-21) (0.000000e+00 0.000000e+00 0.000000e+00)) ((3.299228e+02 4.575901e+01 7.932178e+01) (8.696391e-02 -1.941514e-01 -1.989571e-02) (0.000000e+00 0.000000e+00 0.000000e+00))
54           	((-8.558034e+01 6.598247e+02 7.650571e-19) (3.854422e-01 1.713718e-01 -4.757258e-21) (0.000000e+00 0.000000e+00 0.000000e+00)) ((3.299124e+02 4.279017e+01 8.131195e+01) (8.568588e-02 -1.927211e-01 -1.839366e-02) (0.000000e+00 0.000000e+00 0.000000e+00))
55           	((-7.993178e+01 6.626940e+02 6.844400e-19) (3.830795e-01 1.688886e-01 -4.178963e-21) (0.000000e+00 0.000000e+00 0.000000e+00)) ((3.313470e+02 3.996589e+01 8.403636e+01) (8.444428e-02 -1.915398e-01 -1.686911e-02) (0.000000e+00 0.000000e+00 0.000000e+00))
56           	((-7.465142e+01 6.662908e+02 6.145953e-19) (3.813079e-01 1.663435e-01 -3.717064e-21) (0.000000e+00 0.000000e+00 0.000000e+00)) ((3.331454e+02 3.732571e+01 8.694696e+01) (8.317177e-02 -1.906539e-01 -1.540317e-02) (0.000000e+00 0.000000e+00 0.000000e+00))
57           	((-6.956975e+01 6.685625e+02 5.515215e-19) (3.800224e-01 1.637212e-01 -3.559528e-21) (0.000000e+00 0.000000e+00 0.000000e+00)) ((3.342813e+02 3.478488e+01 8.962194e+01) (8.186061e-02 -1.900112e-01 -1.401596e-02) (0.000000e+00 0.000000e+00 0.000000e+00))
58           	((-6.447312e+01 6.686117e+02 4.918615e-19) (3.791691e-01 1.611015e-01 -4.156297e-21) (0.000000e+00 0.000000e+00 0.000000e+00)) ((3.343058e+02 3.223656e+01 9.197827e+01) (8.055076e-02 -1.895845e-01 -1.268249e-02) (0.000000e+00 0.000000e+00 0.000000e+00))
59           	((-5.927082e+01 6.668024e+02 4.356233e-19) (3.787425e-01 1.586013e-01 -3.616841e-21) (0.000000e+00 0.000000e+00 0.000000e+00)) ((3.334012e+02 2.963541e+01 9.421861e+01) (7.930063e-02 -1.893712e-01 -1.135379e-02) (0.000000e+00 0.000000e+00 0.000000e+00))
60           	((-5.396655e+01 6.642114e+02 3.841696e-19) (3.786969e-01 1.562562e-01 -3.052646e-21) (0.000000e+00 0.000000e+00 0.000000e+00)) ((3.321057e+02 2.698328e+01 9.666269e+01) (7.812808e-02 -1.893484e-01 -1.000100e-02) (0.000000e+00 0.000000e+00 0.000000e+00))
61           	((-4.857188e+01 6.618267e+02 3.378517e-19) (3.790247e-01 1.540343e-01 -4.502507e-21) (0.000000e+00 0.000000e+00 0.000000e+00)) ((3.309133e+02 2.428594e+01 9.956086e+01) (7.701713e-02 -1.895123e-01 -8.630830e-03) (0.000000e+00 0.000000e+00 0.000000e+00))
62           	((-4.310993e+01 6.601168e+02 2.961751e-19) (3.798218e-01 1.518529e-01 -3.995520e-21) (0.000000e+00 0.000000e+00 0.000000e+00)) ((3.300584e+02 2.155496e+01 1.029808e+02) (7.592647e-02 -1.899109e-01 -7.285001e-03) (0.000000e+00 0.000000e+00 0.000000e+00))
63           	((-3.768307e+01 6.589449e+02 2.590102e-19) (3.810929e-01 1.496549e-01 -4.462422e-21) (0.000000e+00 0.000000e+00 0.000000e+00)) ((3.294725e+02 1.884154e+01 1.067567e+02) (7.482743e-02 -1.905465e-01 -5.995670e-03) (0.000000e+00 0.000000e+00 0.000000e+00))
64           	((-3.245575e+01 6.579229e+02 2.266945e-19) (3.826812e-01 1.474628e-01 -4.008366e-21) (0.000000e+00 0.000000e+00 0.000000e+00)) ((3.289615e+02 1.622788e+01 1.106013e+02) (7.373138e-02 -1.913406e-01 -4.757647e-03) (0.000000e+00 0.000000e+00 0.000000e+00))
65           	((-2.750659e+01 6.566001e+02 1.988527e-19) (3.845837e-01 1.453215e-01 -4.218842e-21) (0.000000e+00 0.000000e+00 0.000000e+00)) ((3.283000e+02 1.375329e+01 1.143077e+02) (7.266077e-02 -1.922919e-01 -3.561071e-03) (0.000000e+00 0.000000e+00 0.000000e+00))
66           	((-2.276901e+01 6.546258e+02 1.742397e-19) (3.869205e-01 1.432533e-01 -4.550867e-21) (0.000000e+00 0.000000e+00 0.000000e+00)) ((3.273129e+02 1.138451e+01 1.178534e+02) (7.162663e-02 -1.934603e-01 -2.392634e-03) (0.000000e+00 0.000000e+00 0.000000e+00))
67           	((-1.815974e+01 6.515444e+02 1.516813e-19) (3.895359e-01 1.412809e-01 -4.565901e-21) (0.000000e+00 0.000000e+00 0.000000e+00)) ((3.257722e+02 9.079868e+00 1.211961e+02) (7.064044e-02 -1.947680e-01 -1.231591e-03) (0.000000e+00 0.000000e+00 0.000000e+00))
68           	((-1.362650e+01 6.465698e+02 1.301975e-19) (3.923776e-01 1.393784e-01 -3.140766e-21) (0.000000e+00 0.000000e+00 0.000000e+00)) ((3.232849e+02 6.813252e+00 1.241687e+02) (6.968920e-02 -1.961888e-01 -8.003897e-05) (0.000000e+00 0.000000e+00 0.000000e+00))
69           	((-9.255874e+00 6.387759e+02 1.099127e-19) (3.956246e-01 1.374716e-01 -2.044440e-21) (0.000000e+00 0.000000e+00 0.000000e+00)) ((3.193880e+02 4.627937e+00 1.263807e+02) (6.873578e-02 -1.978123e-01 1.021426e-03) (0.000000e+00 0.000000e+00 0.000000e+00))
70           	((-4.253204e+00 6.250728e+02 7.395244e-20) (3.996171e-01 1.355219e-01 -2.975628e-21) (0.000000e+00 0.000000e+00 0.000000e+00)) ((3.125364e+02 2.126602e+00 1.276156e+02) (6.776095e-02 -1.998085e-01 2.047348e-03) (0.000000e+00 0.000000e+00 0.000000e+00))
71           	((-3.357170e-01 6.109236e+02 4.284024e-20) (4.054374e-01 1.334824e-01 -3.437312e-21) (0.000000e+00 0.000000e+00 0.000000e+00)) ((3.054618e+02 1.678585e-01 1.278157e+02) (6.674121e-02 -2.027187e-01 2.964599e-03) (0.000000e+00 0.000000e+00 0.000000e+00))
72           	((2.638399e+00 5.959010e+02 1.779163e-20) (4.121214e-01 1.313154e-01 -3.664912e-21) (0.000000e+00 0.000000e+00 0.000000e+00)) ((2.979505e+02 -1.319199e+00 1.270247e+02) (6.565770e-02 -2.060607e-01 3.697432e-03) (0.000000e+00 0.000000e+00 0.000000e+00))
73           	((4.962116e+00 5.765164e+02 4.089850e-21) (4.192202e-01 1.289982e-01 -4.152147e-21) (0.000000e+00 0.000000e+00 0.000000e+00)) ((2.882582e+02 -2.481058e+00 1.247821e+02) (6.449908e-02 -2.096101e-01 4.248007e-03) (0.000000e+00 0.000000e+00 0.000000e+00))
74           	((7.395042e+00 5.488016e+02 -1.142983e-20) (4.259448e-01 1.266404e-01 -4.181661e-21) (0.000000e+00 0.000000e+00 0.000000e+00)) ((2.744008e+02 -3.697521e+00 1.203507e+02) (6.332022e-02 -2.129724e-01 4.759319e-03) (0.000000e+00 0.000000e+00 0.000000e+00))
75           	((1.012189e+01 5.141586e+02 -3.145711e-20) (4.330072e-01 1.241158e-01 -4.098886e-21) (0.000000e+00 0.000000e+00 0.000000e+00)) ((2.570793e+02 -5.060945e+00 1.141896e+02) (6.205789e-02 -2.165036e-01 5.208414e-03) (0.000000e+00 0.000000e+00 0.000000e+00))
76           	((1.295216e+01 4.773291e+02 -5.420005e-20) (4.405246e-01 1.214988e-01 -4.048708e-21) (0.000000e+00 0.000000e+00 0.000000e+00)) ((2.386646e+02 -6.476082e+00 1.072156e+02) (6.074938e-02 -2.202623e-01 5.662749e-03) (0.000000e+00 0.000000e+00 0.000000e+00))
77           	((1.549804e+01 4.438882e+02 -7.491373e-20) (4.485953e-01 1.188917e-01 -4.422361e-21) (0.000000e+00 0.000000e+00 0.000000e+00)) ((2.219441e+02 -7.749019e+00 1.003963e+02) (5.944587e-02 -2.242977e-01 6.151313e-03) (0.000000e+00 0.000000e+00 0.000000e+00))
78           	((1.762883e+01 4.134567e+02 -9.160662e-20) (4.571344e-01 1.163054e-01 -4.415597e-21) (0.000000e+00 0.000000e+00 0.000000e+00)) ((2.067283e+02 -8.814416e+00 9.355920e+01) (5.815271e-02 -2.285672e-01 6.633150e-03) (0.000000e+00 0.000000e+00 0.000000e+00))
79           	((1.941791e+01 3.818014e+02 -1.044897e-19) (4.659378e-01 1.135673e-01 -3.911626e-21) (0.000000e+00 0.000000e+00 0.000000e+00)) ((1.909007e+02 -9.708953e+00 8.578953e+01) (5.678366e-02 -2.329689e-01 6.972591e-03) (0.000000e+00 0.000000e+00 0.000000e+00))
80           	((2.156501e+01 3.454554e+02 -1.261245e-19) (4.756478e-01 1.108581e-01 -4.363897e-21) (0.000000e+00 0.000000e+00 0.000000e+00)) ((1.727277e+02 -1.078250e+01 7.658047e+01) (5.542905e-02 -2.378239e-01 7.349141e-03) (0.000000e+00 0.000000e+00 0.000000e+00))
81           	((2.381409e+01 3.117539e+02 -1.468751e-19) (4.789010e-01 8.227578e-02 -7.764964e-21) (0.000000e+00 0.000000e+00 0.000000e+00)) ((1.558770e+02 -1.190705e+01 6.971589e+01) (4.113789e-02 -2.394505e-01 -1.156646e-02) (0.000000e+00 0.000000e+00 0.000000e+00))
82           	((2.688343e+01 2.628038e+02 -1.834038e-19) (5.709003e-01 3.520867e-01 4.701916e-21) (0.000000e+00 0.000000e+00 0.000000e+00)) ((1.314019e+02 -1.344172e+01 5.512210e+01) (1.760434e-01 -2.854502e-01 1.926875e-01) (0.000000e+00 0.000000e+00 0.000000e+00))
83           	((-3.651000e+01 1.748889e+03 2.775818e-18) (-3.522956e+00 -1.344039e+01 -4.807425e-19) (0.000000e+00 0.000000e+00 0.000000e+00)) ((8.744446e+02 1.825500e+01 8.911544e+02) (-6.720197e+00 1.761478e+00 -1.011502e+01) (0.000000e+00 0.000000e+00 0.000000e+00))
84           	((-5.818009e+03 -2.336339e+04 2.184507e-16) (-6.974498e+00 -1.780326e+01 5.871944e-17) (0.000000e+00 0.000000e+00 0.000000e+00)) ((-1.168169e+04 2.909005e+03 -1.799679e+04) (-8.901630e+00 3.487249e+00 -1.335243e+01) (0.000000e+00 0.000000e+00 0.000000e+00))
85           	((-4.289722e+03 -2.297577e+04 1.817999e-16) (-1.411107e+01 -1.581272e+01 1.572258e-16) (0.000000e+00 0.000000e+00 0.000000e+00)) ((-1.148788e+04 2.144861e+03 -1.763955e+04) (-7.906358e+00 7.055533e+00 -1.184342e+01) (0.000000e+00 0.000000e+00 0.000000e+00))
86           	((-4.256308e+02 -1.041483e+04 6.573068e-17) (-7.117949e+00 2.604476e+01 3.675406e-17) (0.000000e+00 0.000000e+00 0.000000e+00)) ((-5.207414e+03 2.128154e+02 -8.076043e+03) (1.302238e+01 3.558975e+00 1.924642e+01) (0.000000e+00 0.000000e+00 0.000000e+00))
87           	((3.546605e+03 9.014278e+03 -5.203383e-17) (1.259914e+01 4.900983e+01 2.453708e-17) (0.000000e+00 0.000000e+00 0.000000e+00)) ((4.507139e+03 -1.773303e+03 6.285604e+03) (2.450492e+01 -6.299568e+00 3.611798e+01) (0.000000e+00 0.000000e+00 0.000000e+00))
88           	((3.674772e+03 1.188091e+04 -6.164853e-17) (2.317615e+00 1.798504e+00 2.883855e-18) (0.000000e+00 0.000000e+00 0.000000e+00)) ((5.940456e+03 -1.837386e+03 8.540416e+03) (8.992519e-01 -1.158808e+00 1.275580e+00) (0.000000e+00 0.000000e+00 0.000000e+00))
89           	((1.748055e+03 4.779465e+03 -3.100879e-17) (5.851483e+00 -8.400675e+00 1.939396e-18) (0.000000e+00 0.000000e+00 0.000000e+00)) ((2.389733e+03 -8.740275e+02 3.460354e+03) (-4.200338e+00 -2.925742e+00 -6.225886e+00) (0.000000e+00 0.000000e+00 0.000000e+00))
90           	((-3.163643e+02 -3.101288e+03 1.983062e-17) (1.024833e+01 -8.688873e+00 1.334841e-18) (0.000000e+00 0.000000e+00 0.000000e+00)) ((-1.550644e+03 1.581821e+02 -2.230560e+03) (-4.344437e+00 -5.124167e+00 -6.449524e+00) (0.000000e+00 0.000000e+00 0.000000e+00))
91           	((-1.282660e+03 -5.727011e+03 5.494147e-17) (1.115045e+01 -5.647364e+00 1.446769e-18) (0.000000e+00 0.000000e+00 0.000000e+00)) ((-2.863506e+03 6.413300e+02 -4.201396e+03) (-2.823682e+00 -5.575227e+00 -4.221974e+00) (0.000000e+00 0.000000e+00 0.000000e+00))
92           	((-7.799365e+02 -9.959572e+02 5.183458e-17) (8.046950e+00 -2.072647e+00 1.660675e-18) (0.000000e+00 0.000000e+00 0.000000e+00)) ((-4.979786e+02 3.899683e+02 -1.033992e+03) (-1.036324e+00 -4.023475e+00 -1.578376e+00) (0.000000e+00 0.000000e+00 0.000000e+00))
93           	((2.268472e+02 4.543164e+03 2.848240e-17) (8.811662e+00 -5.240074e-01 9.401813e-19) (0.000000e+00 0.000000e+00 0.000000e+00)) ((2.271582e+03 -1.134236e+02 2.636216e+03) (-2.620037e-01 -4.405831e+00 -4.633639e-01) (0.000000e+00 0.000000e+00 0.000000e+00))
94           	((8.684045e+02 6.778807e+03 4.439126e-18) (1.177282e+01 8.041801e-01 -1.177579e-18) (0.000000e+00 0.000000e+00 0.000000e+00)) ((3.389403e+03 -4.342023e+02 4.060767e+03) (4.020900e-01 -5.886409e+00 4.786915e-01) (0.000000e+00 0.000000e+00 0.000000e+00))
95           	((1.053745e+03 6.133549e+03 -1.444221e-17) (1.293127e+01 -1.147975e-01 3.064433e-18) (0.000000e+00 0.000000e+00 0.000000e+00)) ((3.066775e+03 -5.268723e+02 3.458222e+03) (-5.739877e-02 -6.465636e+00 -2.098407e-01) (0.000000e+00 0.000000e+00 0.000000e+00))
96           	((7.993714e+02 3.513057e+03 -1.973287e-17) (1.369473e+01 -2.072788e+00 2.053019e-18) (0.000000e+00 0.000000e+00 0.000000e+00)) ((1.756528e+03 -3.996857e+02 1.548563e+03) (-1.036394e+00 -6.847365e+00 -1.664858e+00) (0.000000e+00 0.000000e+00 0.000000e+00))
97           	((2.633458e+02 7.189867e+01 -1.057906e-17) (1.230002e+01 -3.243460e+00 1.075206e-18) (0.000000e+00 0.000000e+00 0.000000e+00)) ((3.594934e+01 -1.316729e+02 -8.578222e+02) (-1.621730e+00 -6.150009e+00 -2.530273e+00) (0.000000e+00 0.000000e+00 0.000000e+00))
98           	((-2.794579e+02 -2.701425e+03 5.663038e-18) (1.034258e+01 -2.988407e+00 1.732576e-18) (0.000000e+00 0.000000e+00 0.000000e+00)) ((-1.350713e+03 1.397290e+02 -2.721279e+03) (-1.494203e+00 -5.171292e+00 -2.339678e+00) (0.000000e+00 0.000000e+00 0.000000e+00))
99           	((-5.847393e+02 -3.747746e+03 1.881318e-17) (8.399755e+00 -1.720690e+00 1.719565e-18) (0.000000e+00 0.000000e+00 0.000000e+00)) ((-1.873873e+03 2.923697e+02 -3.326062e+03) (-8.603450e-01 -4.199878e+00 -1.402714e+00) (0.000000e+00 0.000000e+00 0.000000e+00))
100          	((-5.838852e+02 -3.095030e+03 2.304742e-17) (6.869016e+00 -4.749934e-01 5.683443e-18) (0.000000e+00 0.000000e+00 0.000000e+00)) ((-1.547515e+03 2.919426e+02 -2.743222e+03) (-2.374967e-01 -3.434508e+00 -4.971092e-01) (0.000000e+00 0.000000e+00 0.000000e+00))
101          	((-3.946282e+02 -1.560348e+03 1.985513e-17) (5.726347e+00 1.622199e-01 2.818764e-18) (0.000000e+00 0.000000e+00 0.000000e+00)) ((-7.801741e+02 1.973141e+02 -1.597945e+03) (8.110993e-02 -2.863173e+00 1.839207e-02) (0.000000e+00 0.000000e+00 0.000000e+00))
102          	((-1.558939e+02 3.305131e+01 1.347727e-17) (4.882337e+00 3.526945e-01 -6.962552e-19) (0.000000e+00 0.000000e+00 0.000000e+00)) ((1.652566e+01 7.794697e+01 -5.037354e+02) (1.763473e-01 -2.441169e+00 1.195049e-01) (0.000000e+00 0.000000e+00 0.000000e+00))
103          	((1.173237e+01 1.012028e+03 8.446784e-18) (4.232338e+00 1.646572e-01 4.046056e-19) (0.000000e+00 0.000000e+00 0.000000e+00)) ((5.060141e+02 -5.866185e+00 7.288516e+01) (8.232861e-02 -2.116169e+00 -3.253579e-02) (0.000000e+00 0.000000e+00 0.000000e+00))
104          	((5.321037e+01 1.214628e+03 7.044168e-18) (3.754669e+00 -6.360187e-02 7.750254e-19) (0.000000e+00 0.000000e+00 0.000000e+00)) ((6.073138e+02 -2.660519e+01 6.962556e+01) (-3.180094e-02 -1.877334e+00 -2.049709e-01) (0.000000e+00 0.000000e+00 0.000000e+00))
105          	((-1.214145e+01 9.866559e+02 8.649750e-18) (3.364344e+00 -1.268638e-01 -1.243162e-18) (0.000000e+00 0.000000e+00 0.000000e+00)) ((4.933279e+02 6.070724e+00 -2.446288e+02) (-6.343188e-02 -1.682172e+00 -2.594633e-01) (0.000000e+00 0.000000e+00 0.000000e+00))
106          	((-1.062832e+02 7.551229e+02 9.752337e-18) (2.971591e+00 -3.709100e-02 3.851219e-19) (0.000000e+00 0.000000e+00 0.000000e+00)) ((3.775615e+02 5.314162e+01 -5.318447e+02) (-1.854550e-02 -1.485796e+00 -1.995006e-01) (0.000000e+00 0.000000e+00 0.000000e+00))
107          	((-2.271647e+02 7.981692e+02 1.047727e-17) (2.645668e+00 9.373905e-02 8.362043e-19) (0.000000e+00 0.000000e+00 0.000000e+00)) ((3.990846e+02 1.135824e+02 -6.127983e+02) (4.686952e-02 -1.322834e+00 -1.116021e-01) (0.000000e+00 0.000000e+00 0.000000e+00))
108          	((-3.363529e+02 1.103814e+03 1.009938e-17) (1.985606e+00 -2.285140e-01 6.894935e-19) (0.000000e+00 0.000000e+00 0.000000e+00)) ((5.519071e+02 1.681765e+02 -4.734094e+02) (-1.142570e-01 -9.928030e-01 -3.630858e-01) (0.000000e+00 0.000000e+00 0.000000e+00))
109          	((-1.163219e+02 1.439282e+03 2.440591e-18) (1.555890e+01 2.156920e+01 2.996744e-18) (0.000000e+00 0.000000e+00 0.000000e+00)) ((7.196409e+02 5.816095e+01 -2.351127e+02) (1.078460e+01 -7.779450e+00 1.589888e+01) (0.000000e+00 0.000000e+00 0.000000e+00))
110          	((-1.171899e+06 -2.793906e+06 5.783517e-14) (-7.885706e+03 -8.515075e+03 1.710803e-14) (0.000000e+00 0.000000e+00 0.000000e+00)) ((-1.396953e+06 5.859493e+05 -2.336889e+06) (-4.257537e+03 3.942853e+03 -6.368124e+03) (0.000000e+00 0.000000e+00 0.000000e+00))
111          	((-5.261169e+08 -2.230643e+09 2.228703e-11) (-1.040376e+04 -1.848872e+04 1.353239e-10) (0.000000e+00 0.000000e+00 0.000000e+00)) ((-1.115321e+09 2.630584e+08 -1.654845e+09) (-9.244362e+03 5.201880e+03 -1.396580e+04) (0.000000e+00 0.000000e+00 0.000000e+00))